
data_JUC-596

_audit_creation_method RASPA-1.0
_audit_creation_date 2022-6-6
_audit_author_name 'By Student'

_citation_author_name        'Chengyang Yu, Hui Li, Yujie Wang, et al.,''
_citation_title              'Three-Dimensional Triptycene-Functionalized Covalent Organic Frameworks with hea Net for Hydrogen Adsorption'
_citation_journal_abbrev     'Angew. Chem. Int.'
_citation_journal_volume     0000
_citation_journal_number     0000
_citation_page_first         e202117101
_citation_page_last          e202117106
_citation_year               2022

_cell_length_a                         23.52680
_cell_length_b                         23.52680
_cell_length_c                         37.15450
_cell_angle_alpha                      90
_cell_angle_beta                       90
_cell_angle_gamma                      120
_cell_volume                           17.810

_symmetry_cell_setting                 Hexagonal
_symmetry_space_group_name_Hall        'P 6/m c c'
_symmetry_space_group_name_H-M         'P 6/m c c'
_symmetry_Int_Tables_number            192

loop_
_space_group_symop_operation_xyz
   'x, y, z'
   '-x, -y, -z'
   '-y, x-y, z'
   'y, -x+y, -z'
   '-x+y, -x, z'
   'x-y, x, -z'
   '-x, -y, z'
   'x, y, -z'
   'y, -x+y, z'
   '-y, x-y, -z'
   'x-y, x, z'
   '-x+y, -x, -z'
   'y, x, -z+1/2'
   '-y, -x, z+1/2'
   'x-y, -y, -z+1/2'
   '-x+y, y, z+1/2'
   '-x, -x+y, -z+1/2'
   'x, x-y, z+1/2'
   '-y, -x, -z+1/2'
   'y, x, z+1/2'
   '-x+y, y, -z+1/2'
   'x-y, -y, z+1/2'
   'x, x-y, -z+1/2'
   '-x, -x+y, z+1/2'

loop_
_atom_site_label
_atom_site_type_symbol
_atom_site_fract_x
_atom_site_fract_y
_atom_site_fract_z
_atom_site_charge
H1     H     0.30693     0.26956     0.11361     0
C2     C     0.35155     0.30666     0.10098     0
N3     N     0.40536     0.30401     0.10254     0
C4     C     0.47407     0.25630     0.11506     0
H5     H     0.51007     0.29139     0.09653     0
C6     C     0.48713     0.21174     0.13279     0
F7     F     0.53303     0.21328     0.12742     0
C8     C     0.44156     0.16589     0.15716     0
C9     C     0.38234     0.16558     0.16312     0
H10     H     0.34683     0.13224     0.18242     0
C11     C     0.36921     0.21011     0.14532     0
H12     H     0.32383     0.20904     0.15147     0
C13     C     0.41520     0.25596     0.12101     0
C14     C     0.28939     0.35759     0.07585     0
C16     C     0.28625     0.40602     0.05560     0
H17     H     0.23953     0.40393     0.05213     0
C18     C     0.34318     0.45682     0.03988     0
C19     C     0.40336     0.45941     0.04496     0
H20     H     0.44769     0.49913     0.03343     0
C21     C     0.40656     0.41085     0.06494     0
H22     H     0.45366     0.41375     0.06829     0
C23     C     0.34944     0.35924     0.08043     0
C24     C     0.33561     0.60878     0.01906     0
C25     C     0.34031     0.50861     0.01911     0
C26     C     0.40736     0.05772     0.18748     0
H27     H     0.35762     0.03848     0.17787     0
C28     C     0.42113     0.01850     0.20998     0
H29     H     0.38156    -0.03001     0.21680     0
C30     C     0.48474     0.04209     0.22411     0
C31     C     0.53554     0.10221     0.21061     0
H32     H     0.58619     0.11983     0.21788     0
C33     C     0.52170     0.14194     0.18877     0
H34     H     0.56173     0.18990     0.18149     0
C35     C     0.45707     0.12104     0.17774     0
C36     C     0.44084     0.66184     0.53802     0
H37     H     0.43969     0.66078     0.56706     0
H       H     0.31862     0.24486     0.58775     0
C38     C     0.00000     0.50000     0.25000     0
C39     C     0.33333     0.66667     0.53597     0
H40     H     0.33333     0.66667     0.56590     0
