
data_graphite_90A

_audit_creation_method RASPA-1.0
_audit_creation_date 2022-6-6
_audit_author_name 'By Student'

_citation_author_name        'by student'
_citation_title              'graphite'
_citation_journal_abbrev     'carbon'
_citation_journal_volume     0000
_citation_journal_number     0000
_citation_page_first         e202117101
_citation_page_last          e202117106
_citation_year               2022

_cell_length_a                         4.93545
_cell_length_b                         4.27422
_cell_length_c                         113.43600
_cell_angle_alpha                      90
_cell_angle_beta                       90
_cell_angle_gamma                      90

_symmetry_cell_setting                 Triclinic
_symmetry_space_group_name_Hall        'P 1'
_symmetry_space_group_name_H-M         'P 1'
_symmetry_Int_Tables_number            1

loop_
_space_group_symop_operation_xyz
   'x, y, z'

loop_
_atom_site_label
_atom_site_type_symbol
_atom_site_fract_x
_atom_site_fract_y
_atom_site_fract_z
_atom_site_charge
C1     C     0.00000     0.00000     0.01476     0.0
C2     C     -0.25000     0.50000     0.01476     0.0
C3     C     0.50000     0.00000     0.01476     0.0
C4     C     0.25000     0.50000     0.01476     0.0
C5     C     0.25000     0.16667     0.01476     0.0
C6     C     0.00000     0.66667     0.01476     0.0
C7     C     0.75000     0.16667     0.01476     0.0
C8     C     0.50000     0.66667     0.01476     0.0
C9     C     0.00000     0.00000     0.04427     0.0
C10     C     -0.25000     0.50000     0.04427     0.0
C11     C     0.50000     0.00000     0.04427     0.0
C12     C     0.25000     0.50000     0.04427     0.0
C13     C     0.00000     0.33333     0.04427     0.0
C14     C     -0.25000     0.83333     0.04427     0.0
C15     C     0.50000     0.33333     0.04427     0.0
C16     C     0.25000     0.83333     0.04427     0.0
C17     C     0.00000     0.00000     0.07379     0.0
C18     C     -0.25000     0.50000     0.07379     0.0
C19     C     0.50000     0.00000     0.07379     0.0
C20     C     0.25000     0.50000     0.07379     0.0
C21     C     0.25000     0.16667     0.07379     0.0
C22     C     0.00000     0.66667     0.07379     0.0
C23     C     0.75000     0.16667     0.07379     0.0
C24     C     0.50000     0.66667     0.07379     0.0
C25     C     0.00000     0.00000     0.10330     0.0
C26     C     -0.25000     0.50000     0.10330     0.0
C27     C     0.50000     0.00000     0.10330     0.0
C28     C     0.25000     0.50000     0.10330     0.0
C29     C     0.00000     0.33333     0.10330     0.0
C30     C     -0.25000     0.83333     0.10330     0.0
C31     C     0.50000     0.33333     0.10330     0.0
C32     C     0.25000     0.83333     0.10330     0.0
C33     C     0.00000     0.00000     0.89670     0.0
C34     C     -0.25000     0.50000     0.89670     0.0
C35     C     0.50000     0.00000     0.89670     0.0
C36     C     0.25000     0.50000     0.89670     0.0
C37     C     0.25000     0.16667     0.89670     0.0
C38     C     0.00000     0.66667     0.89670     0.0
C39     C     0.75000     0.16667     0.89670     0.0
C40     C     0.50000     0.66667     0.89670     0.0
C41     C     0.00000     0.00000     0.92621     0.0
C42     C     -0.25000     0.50000     0.92621     0.0
C43     C     0.50000     0.00000     0.92621     0.0
C44     C     0.25000     0.50000     0.92621     0.0
C45     C     0.00000     0.33333     0.92621     0.0
C46     C     -0.25000     0.83333     0.92621     0.0
C47     C     0.50000     0.33333     0.92621     0.0
C48     C     0.25000     0.83333     0.92621     0.0
C49     C     0.00000     0.00000     0.95573     0.0
C50     C     -0.25000     0.50000     0.95573     0.0
C51     C     0.50000     0.00000     0.95573     0.0
C52     C     0.25000     0.50000     0.95573     0.0
C53     C     0.25000     0.16667     0.95573     0.0
C54     C     0.00000     0.66667     0.95573     0.0
C55     C     0.75000     0.16667     0.95573     0.0
C56     C     0.50000     0.66667     0.95573     0.0
C57     C     0.00000     0.00000     0.98524     0.0
C58     C     -0.25000     0.50000     0.98524     0.0
C59     C     0.50000     0.00000     0.98524     0.0
C60     C     0.25000     0.50000     0.98524     0.0
C61     C     0.00000     0.33333     0.98524     0.0
C62     C     -0.25000     0.83333     0.98524     0.0
C63     C     0.50000     0.33333     0.98524     0.0
C64     C     0.25000     0.83333     0.98524     0.0
